ITEM: TIMESTEP
0
ITEM: NUMBER OF ATOMS
100
ITEM: BOX BOUNDS pp pp pp
0 10
0 10
0 0
ITEM: ATOMS id x y z
1 1.47471 6.1907 0
2 0.650316 7.65838 0
3 5.26519 9.72258 0
4 8.99382 8.07372 0
5 9.26788 4.56252 0
6 0.420253 6.70423 0
7 4.3301 6.76704 0
8 5.10287 6.11375 0
9 2.90476 8.73535 0
10 2.67233 7.45715 0
11 2.07922 0.892059 0
12 9.8257 3.69104 0
13 8.41068 7.08257 0
14 8.61355 9.69973 0
15 8.72862 7.94335 0
16 5.30386 5.95603 0
17 1.82189 3.06369 0
18 2.93473 3.8461 0
19 0.879705 4.99448 0
20 7.84629 1.77814 0
21 5.79941 6.12755 0
22 5.56859 6.38779 0
23 6.35308 5.86112 0
24 4.77921 2.80234 0
25 0.480319 6.0666 0
26 6.47982 1.40665 0
27 1.63625 9.11939 0
28 5.99959 2.21232 0
29 9.14657 9.50851 0
30 5.31588 5.53453 0
31 9.18464 3.98339 0
32 3.40915 7.60546 0
33 4.29585 6.24669 0
34 9.32895 3.74178 0
35 0.684564 2.19912 0
36 3.14662 0.496951 0
37 1.25594 7.80437 0
38 2.16527 9.1807 0
39 3.00234 4.97242 0
40 5.47861 4.65728 0
41 2.36656 9.77067 0
42 1.74275 3.09292 0
43 8.40867 4.94075 0
44 2.46339 7.56563 0
45 9.00177 7.43331 0
46 7.21963 3.87749 0
47 5.24995 2.73067 0
48 0.827196 3.68303 0
49 4.82206 5.76143 0
50 3.96602 5.43742 0
51 5.90144 3.86724 0
52 7.62788 3.33869 0
53 7.72077 0.739542 0
54 7.54436 7.44129 0
55 8.41674 5.32386 0
56 9.38828 6.31328 0
57 3.08688 8.76507 0
58 0.338087 6.45034 0
59 7.76634 8.31724 0
60 8.25632 0.641324 0
61 7.15961 0.391638 0
62 3.41442 4.10403 0
63 6.64386 1.57632 0
64 2.88242 5.34821 0
65 7.12372 6.00127 0
66 1.43476 3.12601 0
67 1.11292 8.35925 0
68 7.62448 0.301775 0
69 0.376125 0.791664 0
70 5.82053 5.1728 0
71 5.53789 5.42609 0
72 6.76944 2.97861 0
73 5.45799 7.15927 0
74 3.63295 1.71931 0
75 5.48355 7.78508 0
76 6.35391 7.20083 0
77 7.14898 5.63634 0
78 9.96785 0.369483 0
79 4.48052 5.06058 0
80 5.43109 9.80308 0
81 5.43668 6.11923 0
82 7.10029 1.37071 0
83 9.24285 4.71144 0
84 6.59684 4.02497 0
85 6.3232 0.40548 0
86 0.975001 2.50113 0
87 9.27755 1.8522 0
88 2.51899 8.2592 0
89 5.79186 3.58376 0
90 5.98405 6.71728 0
91 9.28106 0.574082 0
92 9.78096 2.34971 0
93 1.46496 6.42535 0
94 0.301402 4.40107 0
95 3.29349 0.721783 0
96 1.97067 1.85983 0
97 6.32653 2.69251 0
98 6.45988 7.62225 0
99 5.85258 0.361691 0
100 6.44417 6.26006 0
ITEM: TIMESTEP
1
ITEM: NUMBER OF ATOMS
100
ITEM: BOX BOUNDS pp pp pp
0 10
0 10
0 0
ITEM: ATOMS id x y z
1 0.252003 6.53397 0
2 0.615928 6.55457 0
3 3.24155 5.72243 0
4 4.52868 2.65914 0
5 2.73931 3.11158 0
6 4.98826 8.47193 0
7 4.15531 6.6973 0
8 0.935713 2.03079 0
9 3.92917 9.27238 0
10 9.79961 1.91909 0
11 4.89218 7.02671 0
12 4.13499 8.43352 0
13 3.36999 2.64128 0
14 0.983904 0.158888 0
15 0.786932 2.62987 0
16 7.18416 9.32566 0
17 5.49058 6.4485 0
18 2.19565 1.07186 0
19 9.84622 8.91345 0
20 4.31234 1.9114 0
21 3.13169 6.94061 0
22 9.19997 0.191394 0
23 3.71993 9.93805 0
24 5.6981 1.30452 0
25 2.56213 5.88327 0
26 5.25969 3.4575 0
27 9.12349 7.42191 0
28 5.34411 9.74914 0
29 8.19859 0.223241 0
30 7.72562 8.20647 0
31 2.41254 6.42551 0
32 5.21954 4.98052 0
33 3.29808 6.02384 0
34 5.15786 4.02548 0
35 0.0479221 5.22021 0
36 7.92563 1.057 0
37 9.4828 3.23837 0
38 6.4117 3.37186 0
39 0.532241 6.92653 0
40 1.23295 1.31944 0
41 9.53465 7.71561 0
42 6.70106 5.06217 0
43 7.25069 7.31176 0
44 6.61594 2.15265 0
45 4.58041 6.37853 0
46 3.2872 2.23409 0
47 1.94675 4.19916 0
48 9.70988 0.976973 0
49 2.48144 4.36488 0
50 1.56552 4.96983 0
51 1.2246 1.66488 0
52 6.73995 4.36651 0
53 5.43035 7.07139 0
54 3.30637 1.84661 0
55 7.58314 6.13549 0
56 3.58004 2.14077 0
57 6.85349 9.28095 0
58 6.98643 5.5629 0
59 0.542363 8.12094 0
60 3.10919 9.40871 0
61 9.6554 9.32153 0
62 6.70607 4.79484 0
63 2.27898 6.94454 0
64 9.22094 0.484925 0
65 2.87731 7.91841 0
66 1.77823 5.62511 0
67 5.24458 9.21074 0
68 9.88569 2.87259 0
69 9.15463 8.20251 0
70 2.87099 2.68722 0
71 3.28521 2.49836 0
72 0.551651 5.5486 0
73 0.926959 4.84599 0
74 8.8548 1.70096 0
75 5.24566 1.09879 0
76 4.43168 0.364686 0
77 1.82872 1.52043 0
78 2.88603 1.26904 0
79 4.28098 4.26594 0
80 8.27777 1.19669 0
81 8.48712 0.150745 0
82 8.27292 6.17534 0
83 0.323726 6.07789 0
84 7.14499 9.93499 0
85 8.58717 0.879943 0
86 0.484106 6.60584 0
87 7.25714 2.08822 0
88 4.49541 1.22392 0
89 5.38532 7.00467 0
90 8.67322 2.37964 0
91 4.73968 1.78214 0
92 8.2551 9.44102 0
93 2.26146 4.84099 0
94 0.674036 4.00226 0
95 4.14116 9.72479 0
96 3.94735 8.6605 0
97 8.29154 1.80912 0
98 0.203056 7.77461 0
99 0.583684 1.38104 0
100 3.68266 9.47797 0
ITEM: TIMESTEP
2
ITEM: NUMBER OF ATOMS
100
ITEM: BOX BOUNDS pp pp pp
0 10
0 10
0 0
ITEM: ATOMS id x y z
1 8.70283 5.01016 0
2 5.93398 7.04172 0
3 3.58578 4.28234 0
4 8.47085 8.94662 0
5 1.0403 1.3274 0
6 0.911168 8.28338 0
7 6.03316 6.81387 0
8 7.50549 0.803653 0
9 8.95512 2.95539 0
10 5.64478 2.89187 0
11 9.75475 7.39261 0
12 8.3754 5.79469 0
13 5.96955 2.95394 0
14 3.18906 5.7823 0
15 7.26432 8.96104 0
16 9.05581 2.77007 0
17 7.98674 1.75322 0
18 5.8678 9.61333 0
19 8.81786 4.96214 0
20 6.68639 8.73424 0
21 3.77134 0.347707 0
22 5.09202 0.544749 0
23 1.0521 8.36732 0
24 5.4378 9.85557 0
25 4.05036 5.67909 0
26 6.10169 5.82572 0
27 9.70092 8.28727 0
28 5.98869 8.53687 0
29 6.57306 4.21972 0
30 8.80117 5.65001 0
31 2.39502 4.72899 0
32 9.55646 0.0558673 0
33 0.551407 4.67741 0
34 5.03596 7.53366 0
35 5.9268 8.27886 0
36 3.48217 4.48014 0
37 4.99915 8.4208 0
38 8.38132 8.34441 0
39 4.49834 7.68651 0
40 5.40691 6.37244 0
41 4.28532 7.6231 0
42 8.93002 8.27079 0
43 9.43526 7.66212 0
44 6.38213 5.53848 0
45 1.63118 1.05847 0
46 5.39672 9.22916 0
47 4.30922 4.49756 0
48 1.78218 3.65477 0
49 8.35434 4.42592 0
50 5.88566 3.17625 0
51 2.16343 0.357181 0
52 6.28262 4.85254 0
53 5.91956 4.0887 0
54 5.15208 7.72529 0
55 3.97138 1.1626 0
56 9.747 1.87243 0
57 7.91451 2.22384 0
58 3.05342 9.07017 0
59 3.00211 7.20612 0
60 7.43857 4.31801 0
61 6.70541 8.11382 0
62 0.970561 7.01081 0
63 7.75993 9.75968 0
64 2.50035 2.98994 0
65 5.87268 1.16974 0
66 8.64228 2.98203 0
67 6.58216 3.2894 0
68 8.04765 3.75565 0
69 0.984451 7.722 0
70 5.00881 6.6839 0
71 4.52622 2.89617 0
72 9.9391 6.32346 0
73 9.48058 3.76081 0
74 9.17338 7.36715 0
75 2.53591 1.52728 0
76 3.74697 8.69284 0
77 4.13421 3.4576 0
78 9.55333 5.05533 0
79 4.23522 6.68055 0
80 9.00928 6.17362 0
81 1.01115 2.22055 0
82 1.05864 2.60662 0
83 7.36917 8.21853 0
84 7.08481 2.48135 0
85 4.61633 1.24476 0
86 9.27232 6.17584 0
87 8.29672 2.11111 0
88 4.89402 1.08749 0
89 4.47488 9.72349 0
90 3.79525 3.36406 0
91 5.39476 3.94393 0
92 9.24539 2.709 0
93 6.85221 3.26623 0
94 7.94755 3.23823 0
95 2.02045 0.87429 0
96 8.06587 5.05167 0
97 4.29949 9.36928 0
98 2.46401 8.70423 0
99 6.60581 5.56855 0
100 6.58351 4.70819 0
ITEM: TIMESTEP
3
ITEM: NUMBER OF ATOMS
100
ITEM: BOX BOUNDS pp pp pp
0 10
0 10
0 0
ITEM: ATOMS id x y z
1 0.216502 7.72263 0
2 4.67833 2.73093 0
3 9.35899 0.32481 0
4 1.87525 3.05349 0
5 7.26841 8.68646 0
6 7.56637 5.14659 0
7 9.40807 5.13533 0
8 5.61993 8.07761 0
9 0.0340622 1.74845 0
10 8.08727 9.94767 0
11 2.63265 8.42983 0
12 4.51808 4.93973 0
13 9.60473 7.18354 0
14 2.84607 5.59067 0
15 1.44887 9.83172 0
16 4.38428 6.89757 0
17 5.469 2.52954 0
18 2.52293 4.95212 0
19 6.93259 7.7671 0
20 4.46226 5.93521 0
21 0.898151 0.499443 0
22 9.84743 0.134639 0
23 1.62515 1.97364 0
24 5.78849 6.7002 0
25 2.04632 3.77846 0
26 5.07487 5.09361 0
27 2.69874 6.78114 0
28 5.67101 9.78663 0
29 5.35032 7.58536 0
30 9.67571 3.59045 0
31 4.53561 5.00547 0
32 9.90102 9.86675 0
33 0.521527 7.33097 0
34 1.06577 5.87728 0
35 1.68183 0.81132 0
36 1.20518 8.45445 0
37 5.26494 1.4283 0
38 3.17063 1.7423 0
39 8.16828 6.76636 0
40 5.92414 3.91132 0
41 1.24645 7.67818 0
42 9.88051 6.6635 0
43 0.1297 1.53673 0
44 6.94935 7.74661 0
45 4.68433 5.94576 0
46 6.42869 2.29766 0
47 8.93571 8.94165 0
48 8.193 2.71869 0
49 6.59424 0.295167 0
50 7.21807 5.5353 0
51 5.64471 6.58495 0
52 0.0470655 6.2818 0
53 7.95903 8.19494 0
54 6.39969 6.08395 0
55 7.22246 9.79319 0
56 5.08928 5.17897 0
57 6.36643 4.96219 0
58 1.681 2.68085 0
59 0.197214 1.95159 0
60 0.236154 0.460387 0
61 7.36318 2.96749 0
62 0.681215 3.83188 0
63 7.60771 9.88426 0
64 4.91722 4.9784 0
65 4.89818 8.34997 0
66 0.0928184 2.19907 0
67 2.90493 7.29513 0
68 9.95987 5.58749 0
69 4.21029 8.01862 0
70 8.15936 6.6648 0
71 0.197978 1.94865 0
72 9.91375 8.52549 0
73 5.54637 0.160999 0
74 6.81021 5.03213 0
75 4.85776 9.03459 0
76 5.07795 8.63558 0
77 4.86716 6.83867 0
78 8.59715 7.76445 0
79 3.45558 5.21926 0
80 3.59556 3.01733 0
81 6.91452 4.93041 0
82 6.74114 5.97741 0
83 6.74111 2.37366 0
84 9.30014 3.58539 0
85 9.1094 0.211251 0
86 3.81319 2.52585 0
87 8.13427 9.81022 0
88 5.29244 7.70763 0
89 7.89017 3.18757 0
90 8.34762 9.91078 0
91 6.62809 3.6863 0
92 7.68923 1.22441 0
93 5.98014 5.31548 0
94 8.93041 2.83504 0
95 7.77979 6.65194 0
96 3.08926 9.72866 0
97 9.35203 5.40022 0
98 0.609977 1.77854 0
99 1.2268 8.46869 0
100 8.48911 4.9212 0
ITEM: TIMESTEP
4
ITEM: NUMBER OF ATOMS
100
ITEM: BOX BOUNDS pp pp pp
0 10
0 10
0 0
ITEM: ATOMS id x y z
1 6.08355 2.30434 0
2 7.26225 4.12043 0
3 1.94935 2.56584 0
4 3.24756 7.85925 0
5 1.30205 0.153112 0
6 9.49813 0.662549 0
7 1.10724 0.576985 0
8 6.50257 3.07114 0
9 0.592128 1.48055 0
10 6.21582 6.1529 0
11 4.94288 5.35582 0
12 0.670898 4.15736 0
13 2.55815 9.63419 0
14 8.39489 5.14211 0
15 1.67322 1.27719 0
16 5.88595 5.54454 0
17 6.07578 2.34016 0
18 6.37292 5.25477 0
19 6.34291 6.81195 0
20 5.18654 8.97498 0
21 1.28217 2.116 0
22 2.22599 0.33632 0
23 0.89332 5.7403 0
24 4.96355 6.31962 0
25 6.94973 8.78083 0
26 1.9296 3.93325 0
27 7.02463 2.48143 0
28 0.765865 5.31347 0
29 1.23575 2.96133 0
30 9.47352 4.39802 0
31 2.25248 3.98834 0
32 5.81801 8.23045 0
33 0.746719 9.65369 0
34 6.09924 5.55039 0
35 9.65186 4.33954 0
36 3.36072 9.34553 0
37 3.0376 5.53169 0
38 8.62164 7.83698 0
39 7.08458 3.01073 0
40 0.488293 6.89122 0
41 8.83628 8.56372 0
42 4.70382 0.505491 0
43 1.13768 5.57397 0
44 1.8412 0.180136 0
45 0.334198 4.96156 0
46 9.80695 9.60335 0
47 2.24214 5.14504 0
48 3.66245 1.5596 0
49 1.96156 4.86787 0
50 0.480123 8.543 0
51 6.94249 3.74819 0
52 0.229669 7.25454 0
53 8.20934 5.79727 0
54 6.55217 5.99581 0
55 2.18581 3.76755 0
56 4.72309 6.40835 0
57 8.84515 0.310837 0
58 5.63022 6.28212 0
59 9.77153 0.863291 0
60 7.96575 0.227156 0
61 2.80695 6.48943 0
62 6.03544 2.12239 0
63 1.92361 2.23638 0
64 2.73113 2.50489 0
65 9.949 0.307111 0
66 5.58065 2.5251 0
67 7.52615 3.38981 0
68 3.90467 0.502246 0
69 9.82546 1.84768 0
70 8.32015 0.729942 0
71 0.911167 3.56977 0
72 0.351535 2.17041 0
73 7.88547 0.373602 0
74 0.491822 2.48499 0
75 1.43117 5.63859 0
76 3.41804 6.02248 0
77 9.16806 2.89701 0
78 0.587055 4.65666 0
79 7.27195 9.83241 0
80 3.25026 6.80804 0
81 1.96598 8.12988 0
82 4.02739 0.0644236 0
83 1.75231 2.93548 0
84 1.86649 1.17228 0
85 6.04073 6.05223 0
86 2.07753 3.1243 0
87 4.29271 8.57717 0
88 0.383169 0.894424 0
89 4.17466 1.021 0
90 3.53189 9.23319 0
91 0.0293014 2.60782 0
92 4.4842 3.76139 0
93 8.86821 2.05302 0
94 1.63895 7.30802 0
95 4.44356 9.36179 0
96 5.17498 9.4644 0
97 4.93123 1.14716 0
98 4.13412 6.68002 0
99 2.98732 7.92827 0
100 9.96484 5.86516 0
ITEM: TIMESTEP
5
ITEM: NUMBER OF ATOMS
100
ITEM: BOX BOUNDS pp pp pp
0 10
0 10
0 0
ITEM: ATOMS id x y z
1 4.91968 7.9606 0
2 0.477382 2.83876 0
3 5.13721 0.090931 0
4 8.25786 4.44864 0
5 0.987445 4.59615 0
6 5.52006 4.20465 0
7 1.37748 3.83619 0
8 4.48631 6.47062 0
9 3.32036 8.78109 0
10 2.52917 9.83344 0
11 9.57525 0.66884 0
12 2.9836 8.2526 0
13 6.13175 4.27939 0
14 0.995833 4.5651 0
15 9.79274 9.48461 0
16 8.13018 8.00291 0
17 3.07937 6.02139 0
18 8.52216 5.88228 0
19 6.05824 7.24428 0
20 1.779 6.012 0
21 7.19381 8.65258 0
22 1.76292 0.639864 0
23 6.07194 8.70828 0
24 2.90523 0.437984 0
25 1.62484 5.63542 0
26 1.55057 8.94557 0
27 8.00791 3.5545 0
28 8.24126 5.8976 0
29 8.49116 9.56959 0
30 0.988717 2.65728 0
31 3.15512 3.32081 0
32 0.661527 4.72626 0
33 0.392705 1.45825 0
34 5.05469 0.29739 0
35 1.87074 5.90938 0
36 5.93131 3.87202 0
37 7.11578 7.77454 0
38 1.11325 4.2962 0
39 3.11251 3.71978 0
40 5.67197 6.71478 0
41 5.93977 7.02389 0
42 7.46187 4.91787 0
43 6.86185 5.91639 0
44 5.66653 6.00522 0
45 3.57934 3.53958 0
46 8.0279 4.37801 0
47 9.25073 7.07698 0
48 6.87686 6.97143 0
49 3.66541 9.38337 0
50 6.72232 2.50521 0
51 7.89025 4.91424 0
52 1.35911 5.2429 0
53 2.56136 0.270777 0
54 7.80522 8.83004 0
55 3.30839 3.61154 0
56 6.33129 6.93836 0
57 9.81991 3.14916 0
58 5.43925 1.68966 0
59 6.41153 0.249363 0
60 0.214013 1.15994 0
61 4.30989 6.28222 0
62 7.19286 0.412568 0
63 1.62543 4.67917 0
64 6.44945 1.84145 0
65 5.38562 6.92384 0
66 0.789266 4.05773 0
67 5.84929 3.8146 0
68 3.83744 6.31751 0
69 8.85807 9.05329 0
70 7.50414 7.76572 0
71 4.31569 0.311707 0
72 4.95934 1.32949 0
73 1.34792 1.66125 0
74 2.84532 5.16223 0
75 1.47961 6.0716 0
76 3.55799 6.90307 0
77 4.462 1.85216 0
78 1.64894 5.6339 0
79 0.201511 1.38251 0
80 8.17159 4.64659 0
81 0.557486 6.96835 0
82 3.68552 3.4244 0
83 9.11023 5.69548 0
84 0.919595 2.19083 0
85 7.36613 4.78072 0
86 2.20368 2.25461 0
87 9.98404 7.94883 0
88 6.3571 9.94463 0
89 5.10384 1.81515 0
90 5.15811 5.18581 0
91 1.55053 0.729296 0
92 3.47466 7.34126 0
93 3.95852 2.93715 0
94 2.62609 6.27462 0
95 1.81384 6.70853 0
96 9.01208 8.88464 0
97 3.24012 0.634936 0
98 5.82803 3.13759 0
99 2.48166 8.80711 0
100 4.45068 3.39044 0
ITEM: TIMESTEP
6
ITEM: NUMBER OF ATOMS
100
ITEM: BOX BOUNDS pp pp pp
0 10
0 10
0 0
ITEM: ATOMS id x y z
1 3.51218 6.75419 0
2 1.53276 1.40608 0
3 5.47233 2.90883 0
4 0.311712 3.91232 0
5 4.62961 5.17755 0
6 5.91912 9.54652 0
7 6.24441 0.065901 0
8 1.79762 1.98758 0
9 4.72039 6.0281 0
10 9.32928 5.71899 0
11 5.60834 1.51555 0
12 4.86568 7.22639 0
13 5.93072 6.13907 0
14 6.16963 2.7964 0
15 4.52371 0.285735 0
16 5.67243 8.22021 0
17 1.5059 6.34384 0
18 4.77957 2.20942 0
19 2.49366 1.64248 0
20 4.10799 2.63581 0
21 4.0773 0.96087 0
22 8.32456 7.98548 0
23 0.705407 6.26134 0
24 4.52156 5.2243 0
25 0.367812 0.81058 0
26 8.99204 2.25434 0
27 1.654 6.23969 0
28 4.37236 8.8527 0
29 2.67793 0.575681 0
30 5.39747 5.92567 0
31 4.82483 4.09266 0
32 9.14726 1.31913 0
33 1.44224 9.63937 0
34 8.71908 5.23076 0
35 4.39501 1.81419 0
36 3.81817 9.96311 0
37 8.6209 0.426449 0
38 5.37 3.67792 0
39 7.12626 7.49869 0
40 3.84393 0.403785 0
41 4.6965 4.99258 0
42 8.95261 3.20168 0
43 8.16393 7.01471 0
44 6.30092 4.80942 0
45 4.06434 4.50443 0
46 8.48477 3.82221 0
47 4.3974 7.9476 0
48 3.5613 8.39719 0
49 6.25886 9.38782 0
50 7.14596 7.01999 0
51 1.36193 9.0566 0
52 4.49677 1.33208 0
53 9.05128 0.537015 0
54 5.26592 8.59699 0
55 2.25205 4.10568 0
56 8.80005 9.09327 0
57 0.0322483 6.3731 0
58 4.74788 5.6568 0
59 2.12433 4.79596 0
60 1.76094 9.96069 0
61 1.28143 6.07405 0
62 4.13844 7.07588 0
63 2.79895 4.91002 0
64 8.15041 6.13751 0
65 5.70822 7.73316 0
66 6.68553 6.23408 0
67 4.84834 8.58185 0
68 7.06918 6.54232 0
69 5.0903 2.64745 0
70 0.501955 4.61158 0
71 2.26847 3.24578 0
72 1.81163 5.50701 0
73 0.593197 7.53164 0
74 6.00281 3.89732 0
75 1.74461 2.19464 0
76 8.58383 8.28292 0
77 4.61376 2.78755 0
78 4.58638 7.09996 0
79 6.94925 9.99023 0
80 2.2305 7.34604 0
81 1.12386 4.5248 0
82 1.70612 5.74398 0
83 2.62197 7.40973 0
84 4.01489 4.85739 0
85 3.86317 4.02017 0
86 8.73352 9.60697 0
87 3.67663 7.67775 0
88 6.71068 6.72909 0
89 3.22656 9.11761 0
90 2.21997 6.56541 0
91 9.11937 2.04945 0
92 9.05921 3.759 0
93 1.70392 3.90762 0
94 4.3845 5.70179 0
95 1.27175 8.9537 0
96 4.17029 7.29554 0
97 6.4272 1.66713 0
98 4.2003 7.19283 0
99 5.20789 6.45607 0
100 5.90358 4.34795 0
ITEM: TIMESTEP
7
ITEM: NUMBER OF ATOMS
100
ITEM: BOX BOUNDS pp pp pp
0 10
0 10
0 0
ITEM: ATOMS id x y z
1 2.52406 5.42375 0
2 9.96837 2.57764 0
3 4.89642 6.22747 0
4 2.00774 9.61164 0
5 6.03129 2.88903 0
6 6.84724 1.34784 0
7 3.5527 9.63449 0
8 8.70087 7.51097 0
9 3.50515 4.65754 0
10 4.28408 5.18252 0
11 3.94404 2.3203 0
12 0.753351 1.84305 0
13 7.28032 8.68745 0
14 2.87441 1.89118 0
15 3.7506 3.5038 0
16 0.684794 6.22874 0
17 6.31827 6.0927 0
18 3.60483 8.40771 0
19 7.23531 6.84274 0
20 6.47979 5.32181 0
21 1.51387 2.67645 0
22 4.25385 5.55595 0
23 3.58443 9.9082 0
24 5.60642 5.29268 0
25 6.96085 6.44167 0
26 5.16853 9.52791 0
27 0.0707403 5.04879 0
28 2.83558 6.24325 0
29 2.77518 3.82854 0
30 3.19451 0.349538 0
31 8.5582 0.710304 0
32 2.01002 2.06501 0
33 2.108 8.5498 0
34 8.73061 4.20255 0
35 4.79234 3.09369 0
36 5.5612 0.287926 0
37 0.835119 6.83923 0
38 2.48983 6.86527 0
39 5.35154 2.72763 0
40 0.381838 7.63993 0
41 9.26972 5.723 0
42 3.27992 3.95331 0
43 7.95748 5.15199 0
44 7.36463 1.2014 0
45 8.04695 7.79776 0
46 6.66008 8.35018 0
47 7.64941 9.61067 0
48 9.77892 8.17953 0
49 6.31993 6.71334 0
50 2.94561 9.78723 0
51 7.58228 9.99951 0
52 8.86127 5.09313 0
53 6.8288 4.0515 0
54 0.269241 3.77387 0
55 3.27758 2.75366 0
56 7.66466 9.73768 0
57 6.95007 3.49065 0
58 4.59389 8.19934 0
59 3.31931 2.76951 0
60 1.06432 6.66733 0
61 7.02773 8.90101 0
62 1.79232 3.85355 0
63 4.71513 6.09054 0
64 9.48231 3.42645 0
65 3.03468 4.94118 0
66 3.42305 7.79132 0
67 8.3285 0.825028 0
68 9.99012 5.59031 0
69 6.63106 1.18981 0
70 0.757001 4.42792 0
71 9.03735 2.11657 0
72 6.44985 2.99282 0
73 6.93123 6.71745 0
74 8.90619 4.71881 0
75 3.55436 9.09159 0
76 9.77332 6.51792 0
77 7.95679 4.08054 0
78 1.57494 2.74612 0
79 2.37558 8.70432 0
80 9.88901 8.80694 0
81 1.1172 2.18499 0
82 8.1985 2.01598 0
83 6.26857 4.84451 0
84 5.532 7.96425 0
85 5.00398 7.61582 0
86 7.65745 4.16919 0
87 0.0080847 3.69924 0
88 8.29761 1.1574 0
89 6.3154 4.88178 0
90 0.0136463 0.868604 0
91 6.64996 4.86115 0
92 2.31053 3.71352 0
93 0.567409 3.40886 0
94 1.65415 9.5957 0
95 0.777946 2.77829 0
96 0.227227 2.1783 0
97 5.85993 7.14544 0
98 9.58052 9.65491 0
99 6.79824 9.47737 0
100 1.95725 9.70365 0
ITEM: TIMESTEP
8
ITEM: NUMBER OF ATOMS
100
ITEM: BOX BOUNDS pp pp pp
0 10
0 10
0 0
ITEM: ATOMS id x y z
1 2.60986 4.2997 0
2 9.58784 7.49353 0
3 9.60392 0.650619 0
4 4.84616 8.16005 0
5 5.1526 3.38519 0
6 0.152584 7.03497 0
7 2.79567 5.46066 0
8 8.84745 1.49998 0
9 6.33 1.93597 0
10 9.04399 6.85602 0
11 9.04831 9.87443 0
12 8.36048 7.53559 0
13 1.87859 8.47 0
14 6.83256 0.113336 0
15 0.00293997 3.24716 0
16 6.82436 6.0889 0
17 0.521238 6.30039 0
18 4.76983 4.9741 0
19 2.67266 2.95082 0
20 7.46511 1.27193 0
21 0.273798 3.17737 0
22 3.14038 2.19279 0
23 1.32234 4.19138 0
24 7.36624 5.25316 0
25 2.088 1.36582 0
26 6.88308 7.69714 0
27 3.86343 2.6331 0
28 3.27575 7.60396 0
29 9.98581 8.61252 0
30 5.67642 0.927671 0
31 5.36415 6.24889 0
32 0.210622 4.59688 0
33 9.80131 8.94536 0
34 1.01008 0.281984 0
35 6.64532 9.0124 0
36 0.212501 0.171867 0
37 7.34188 5.26307 0
38 1.62399 9.44712 0
39 7.78578 3.84703 0
40 6.44115 4.15562 0
41 5.20729 6.49472 0
42 7.05131 3.29132 0
43 4.56596 5.73241 0
44 0.482153 3.61852 0
45 1.86146 5.57678 0
46 3.59962 2.14835 0
47 9.22501 7.71996 0
48 2.2024 1.33072 0
49 7.46972 8.59218 0
50 1.69821 0.174188 0
51 7.82387 3.47999 0
52 2.26091 8.41994 0
53 1.93912 6.54696 0
54 2.85601 5.55766 0
55 5.84023 6.17336 0
56 7.36785 9.75819 0
57 3.19721 2.34441 0
58 6.02754 1.00334 0
59 0.491401 9.14774 0
60 2.69474 1.68613 0
61 3.81145 4.19172 0
62 8.46117 0.666741 0
63 3.59187 5.11381 0
64 3.22494 3.52755 0
65 5.26873 0.982557 0
66 0.677442 9.82076 0
67 3.85654 0.691004 0
68 0.983807 6.61176 0
69 1.86039 9.41089 0
70 2.12191 0.917922 0
71 0.991502 4.57582 0
72 1.26954 0.0912358 0
73 0.182541 6.92041 0
74 7.64081 0.942574 0
75 5.90941 6.45016 0
76 8.48754 2.14335 0
77 0.970459 6.74642 0
78 3.9111 0.740559 0
79 9.11038 0.079851 0
80 9.85067 5.58946 0
81 2.97631 7.09626 0
82 0.670698 4.41585 0
83 0.771702 1.87387 0
84 6.1875 2.76072 0
85 1.65693 9.61834 0
86 8.51556 5.03398 0
87 1.98479 7.99541 0
88 1.12342 6.71876 0
89 9.84268 2.13719 0
90 8.78279 0.485932 0
91 6.45902 4.21296 0
92 6.68406 5.77371 0
93 1.87912 8.90728 0
94 5.69328 3.6896 0
95 3.58008 7.84858 0
96 5.80003 9.43053 0
97 2.17342 6.1338 0
98 3.80675 9.37551 0
99 1.93227 7.30483 0
100 7.4032 5.06653 0
ITEM: TIMESTEP
9
ITEM: NUMBER OF ATOMS
100
ITEM: BOX BOUNDS pp pp pp
0 10
0 10
0 0
ITEM: ATOMS id x y z
1 0.367054 2.05582 0
2 2.4591 2.24187 0
3 8.316 9.93949 0
4 8.29406 5.84144 0
5 1.71642 6.91608 0
6 5.61759 8.23197 0
7 3.4156 3.91987 0
8 6.99934 4.21856 0
9 2.19424 9.30381 0
10 1.36848 7.33923 0
11 5.32819 3.69579 0
12 7.29496 0.814279 0
13 4.75572 9.71425 0
14 6.77737 4.90884 0
15 6.45259 5.49872 0
16 3.73627 4.47153 0
17 8.60823 0.770745 0
18 9.44339 1.80425 0
19 7.89301 5.1509 0
20 6.64501 7.16033 0
21 2.11134 3.62843 0
22 7.94555 9.46688 0
23 0.362119 4.61684 0
24 0.283243 5.74155 0
25 3.217 8.62729 0
26 0.352272 6.98344 0
27 0.273023 4.27498 0
28 0.436651 3.57959 0
29 3.60568 8.21414 0
30 8.16926 8.83355 0
31 8.23385 2.36824 0
32 8.77036 9.3775 0
33 2.74121 8.91792 0
34 9.40785 4.00334 0
35 7.0938 1.59665 0
36 2.75358 5.35132 0
37 3.60442 6.85936 0
38 8.24019 7.00205 0
39 2.25216 4.44886 0
40 8.94844 4.73543 0
41 5.73243 2.43624 0
42 5.48794 1.11563 0
43 3.47324 8.71585 0
44 9.20148 3.13549 0
45 0.835273 1.51086 0
46 3.01034 9.10444 0
47 6.09224 3.66032 0
48 0.769113 3.90554 0
49 5.23413 6.71567 0
50 3.12496 7.1326 0
51 1.79345 3.68189 0
52 1.73693 8.99814 0
53 8.59946 7.68169 0
54 1.48701 9.52952 0
55 2.52877 6.24387 0
56 8.34897 5.09202 0
57 1.83414 4.67076 0
58 9.23132 9.13496 0
59 3.47733 3.8253 0
60 6.26348 7.86257 0
61 6.20876 2.38839 0
62 3.34533 0.52033 0
63 9.81621 7.36567 0
64 1.45505 8.49833 0
65 0.06655 2.5439 0
66 6.97571 1.68937 0
67 9.78685 5.98465 0
68 4.21339 3.70929 0
69 0.650658 4.14546 0
70 0.490313 8.88282 0
71 5.17358 0.683304 0
72 3.86536 4.97189 0
73 4.1955 8.43709 0
74 5.78142 8.48579 0
75 9.10196 0.248383 0
76 8.74189 9.58674 0
77 7.09989 2.61822 0
78 6.10188 9.94175 0
79 3.16398 2.47656 0
80 6.76328 6.72724 0
81 2.33136 7.86875 0
82 3.05139 7.47781 0
83 4.20908 9.41362 0
84 1.49866 5.15366 0
85 7.72036 7.76754 0
86 3.55373 6.85067 0
87 8.65611 9.54824 0
88 6.04085 2.44547 0
89 5.61346 0.540994 0
90 2.44665 7.64123 0
91 5.06279 9.89801 0
92 9.31561 4.85677 0
93 4.4716 2.94336 0
94 3.02091 6.76356 0
95 9.17102 1.83706 0
96 7.30772 3.1728 0
97 7.1753 2.82461 0
98 2.70434 8.17054 0
99 9.19957 6.12095 0
100 3.69169 4.19414 0
